TITLE = "Arrhenius data"
VARIABLES = "Temperature", "kf", "kb"
ZONE T="Reaction 1"
I=15000, F=POINT
       1.000   0.000000000000E+00   0.000000000000E+00
       2.000   0.000000000000E+00   0.000000000000E+00
       3.000   0.000000000000E+00   0.000000000000E+00
       4.000   0.000000000000E+00   0.000000000000E+00
       5.000   0.000000000000E+00   0.000000000000E+00
       6.000   0.000000000000E+00   0.000000000000E+00
       7.000   0.000000000000E+00   0.000000000000E+00
       8.000   0.000000000000E+00   0.000000000000E+00
       9.000   0.000000000000E+00   0.000000000000E+00
      10.000   0.000000000000E+00   0.000000000000E+00
      11.000   0.000000000000E+00   0.000000000000E+00
      12.000   0.000000000000E+00   0.000000000000E+00
      13.000   0.000000000000E+00   0.000000000000E+00
      14.000   0.000000000000E+00   0.000000000000E+00
      15.000   0.000000000000E+00   0.000000000000E+00
      16.000   0.000000000000E+00   0.000000000000E+00
      17.000   0.000000000000E+00   0.000000000000E+00
      18.000   0.000000000000E+00   0.000000000000E+00
      19.000   0.000000000000E+00   0.000000000000E+00
      20.000   0.000000000000E+00   0.000000000000E+00
      21.000   0.000000000000E+00   0.000000000000E+00
      22.000   0.000000000000E+00   0.000000000000E+00
      23.000   0.000000000000E+00   0.000000000000E+00
      24.000   0.000000000000E+00   0.000000000000E+00
      25.000   0.000000000000E+00   0.000000000000E+00
      26.000   0.000000000000E+00   0.000000000000E+00
      27.000   0.000000000000E+00   0.000000000000E+00
      28.000   0.000000000000E+00   0.000000000000E+00
      29.000   0.000000000000E+00   0.000000000000E+00
      30.000   0.000000000000E+00   0.000000000000E+00
      31.000   0.000000000000E+00   0.000000000000E+00
      32.000   0.000000000000E+00   0.000000000000E+00
      33.000  1.385479494164E-305   0.000000000000E+00
      34.000  2.832581001524E-296   0.000000000000E+00
      35.000  1.701105825561E-287   0.000000000000E+00
      36.000  3.323404162084E-279   0.000000000000E+00
      37.000  2.313560357710E-271   0.000000000000E+00
      38.000  6.225940229662E-264   0.000000000000E+00
      39.000  6.967986660178E-257   0.000000000000E+00
      40.000  3.463893699957E-250   0.000000000000E+00
      41.000  8.116435659398E-244   0.000000000000E+00
      42.000  9.458936223504E-238   0.000000000000E+00
      43.000  5.756486967898E-232   0.000000000000E+00
      44.000  1.912270541818E-226   0.000000000000E+00
      45.000  3.610322121364E-221   0.000000000000E+00
      46.000  4.019309158340E-216   0.000000000000E+00
      47.000  2.729026195391E-211   0.000000000000E+00
      48.000  1.165565410188E-206   0.000000000000E+00
      49.000  3.221546582001E-202   0.000000000000E+00
      50.000  5.914677500718E-198   0.000000000000E+00
      51.000  7.389027225299E-194   0.000000000000E+00
      52.000  6.422139929492E-190   0.000000000000E+00
      53.000  3.963941726763E-186   0.000000000000E+00
      54.000  1.770874622724E-182   0.000000000000E+00
      55.000  5.827991272690E-179   0.000000000000E+00
      56.000  1.436253182520E-175   0.000000000000E+00
      57.000  2.691136166440E-172   0.000000000000E+00
      58.000  3.888556884093E-169   0.000000000000E+00
      59.000  4.390637541158E-166   0.000000000000E+00
      60.000  3.922010439995E-163   0.000000000000E+00
      61.000  2.803731517758E-160   0.000000000000E+00
      62.000  1.621407738614E-157   0.000000000000E+00
      63.000  7.662325073585E-155   0.000000000000E+00
      64.000  2.987113805775E-152   0.000000000000E+00
      65.000  9.692219388664E-150   0.000000000000E+00
      66.000  2.639359801980E-147   0.000000000000E+00
      67.000  6.079741905402E-145   0.000000000000E+00
      68.000  1.193410160781E-142   0.000000000000E+00
      69.000  2.010172449940E-140   0.000000000000E+00
      70.000  2.924584864576E-138   0.000000000000E+00
      71.000  3.698029107599E-136   0.000000000000E+00
      72.000  4.087804730240E-134   0.000000000000E+00
      73.000  3.972126895550E-132   0.000000000000E+00
      74.000  3.410664330167E-130   0.000000000000E+00
      75.000  2.600677025849E-128   0.000000000000E+00
      76.000  1.769298200018E-126   0.000000000000E+00
      77.000  1.078729792249E-124   0.000000000000E+00
      78.000  5.919052846310E-123   0.000000000000E+00
      79.000  2.934660382468E-121   0.000000000000E+00
      80.000  1.319717088117E-119   0.000000000000E+00
      81.000  5.402452009574E-118   0.000000000000E+00
      82.000  2.020138926752E-116   0.000000000000E+00
      83.000  6.922659885242E-115   0.000000000000E+00
      84.000  2.180819444763E-113   0.000000000000E+00
      85.000  6.334483507862E-112   0.000000000000E+00
      86.000  1.701285987776E-110   0.000000000000E+00
      87.000  4.236345241299E-109   0.000000000000E+00
      88.000  9.805578697454E-108   0.000000000000E+00
      89.000  2.114913450186E-106   0.000000000000E+00
      90.000  4.260607606286E-105   0.000000000000E+00
      91.000  8.035024477984E-104   0.000000000000E+00
      92.000  1.421589701059E-102   0.000000000000E+00
      93.000  2.364434036209E-101   0.000000000000E+00
      94.000  3.704268123260E-100   0.000000000000E+00
      95.000   5.476716411447E-99   0.000000000000E+00
      96.000   7.655382366925E-98   0.000000000000E+00
      97.000   1.013435387764E-96   0.000000000000E+00
      98.000   1.272713848909E-95   0.000000000000E+00
      99.000   1.518674754087E-94   0.000000000000E+00
     100.000   1.724503566796E-93   0.000000000000E+00
     101.000   1.866243827614E-92   0.000000000000E+00
     102.000   1.927490275012E-91   0.000000000000E+00
     103.000   1.902506827393E-90   0.000000000000E+00
     104.000   1.796960141765E-89   0.000000000000E+00
     105.000   1.626204631045E-88   0.000000000000E+00
     106.000   1.411764291456E-87   0.000000000000E+00
     107.000   1.177078724468E-86   0.000000000000E+00
     108.000   9.436098579845E-86   0.000000000000E+00
     109.000   7.281024829334E-85   0.000000000000E+00
     110.000   5.413249052316E-84   0.000000000000E+00
     111.000   3.881727350307E-83   0.000000000000E+00
     112.000   2.687287080301E-82   0.000000000000E+00
     113.000   1.797755923587E-81   0.000000000000E+00
     114.000   1.163232154369E-80   0.000000000000E+00
     115.000   7.286162278013E-80   0.000000000000E+00
     116.000   4.421735806008E-79   0.000000000000E+00
     117.000   2.601959424122E-78   0.000000000000E+00
     118.000   1.485806847015E-77   0.000000000000E+00
     119.000   8.239620043026E-77   0.000000000000E+00
     120.000   4.440715340548E-76   0.000000000000E+00
     121.000   2.327592874774E-75   0.000000000000E+00
     122.000   1.187317240442E-74   0.000000000000E+00
     123.000   5.898205045332E-74   0.000000000000E+00
     124.000   2.855253567908E-73   0.000000000000E+00
     125.000   1.347754226493E-72   0.000000000000E+00
     126.000   6.206958599361E-72   0.000000000000E+00
     127.000   2.790627227229E-71   0.000000000000E+00
     128.000   1.225531410354E-70   0.000000000000E+00
     129.000   5.259977964933E-70   0.000000000000E+00
     130.000   2.207548125678E-69   0.000000000000E+00
     131.000   9.064129695424E-69   0.000000000000E+00
     132.000   3.642905128730E-68   0.000000000000E+00
     133.000   1.433788437130E-67   0.000000000000E+00
     134.000   5.528930537744E-67   0.000000000000E+00
     135.000   2.089841746449E-66   0.000000000000E+00
     136.000   7.746284220491E-66   0.000000000000E+00
     137.000   2.816872418047E-65   0.000000000000E+00
     138.000   1.005345227080E-64   0.000000000000E+00
     139.000   3.523002342678E-64   0.000000000000E+00
     140.000   1.212636611611E-63   0.000000000000E+00
     141.000   4.101417539698E-63   0.000000000000E+00
     142.000   1.363589739821E-62   0.000000000000E+00
     143.000   4.457961012757E-62   0.000000000000E+00
     144.000   1.433651630918E-61   0.000000000000E+00
     145.000   4.536842024839E-61   0.000000000000E+00
     146.000   1.413221120377E-60   0.000000000000E+00
     147.000   4.334638539617E-60   0.000000000000E+00
     148.000   1.309537838782E-59   0.000000000000E+00
     149.000   3.897965990015E-59   0.000000000000E+00
     150.000   1.143514754940E-58   0.000000000000E+00
     151.000   3.307156310957E-58   0.000000000000E+00
     152.000   9.431897663582E-58   0.000000000000E+00
     153.000   2.653345707864E-57   0.000000000000E+00
     154.000   7.364697255276E-57   0.000000000000E+00
     155.000   2.017414654332E-56   0.000000000000E+00
     156.000   5.455375775374E-56   0.000000000000E+00
     157.000   1.456634561000E-55   0.000000000000E+00
     158.000   3.841293459055E-55   0.000000000000E+00
     159.000   1.000707535257E-54   0.000000000000E+00
     160.000   2.575959212824E-54   0.000000000000E+00
     161.000   6.553446798439E-54   0.000000000000E+00
     162.000   1.648139701209E-53   0.000000000000E+00
     163.000   4.098301037506E-53   0.000000000000E+00
     164.000   1.007834406816E-52   0.000000000000E+00
     165.000   2.451532831516E-52   0.000000000000E+00
     166.000   5.899769707322E-52   0.000000000000E+00
     167.000   1.404962629431E-51   0.000000000000E+00
     168.000   3.311375395745E-51   0.000000000000E+00
     169.000   7.725838560040E-51   0.000000000000E+00
     170.000   1.784654564338E-50   0.000000000000E+00
     171.000   4.082347533746E-50   0.000000000000E+00
     172.000   9.248839110718E-50   0.000000000000E+00
     173.000   2.075670342878E-49   0.000000000000E+00
     174.000   4.615239416167E-49   0.000000000000E+00
     175.000   1.016866560418E-48   0.000000000000E+00
     176.000   2.220420237508E-48   0.000000000000E+00
     177.000   4.805891314876E-48   0.000000000000E+00
     178.000   1.031204647738E-47   0.000000000000E+00
     179.000   2.193870939969E-47   0.000000000000E+00
     180.000   4.628436729700E-47   0.000000000000E+00
     181.000   9.684451081153E-47   0.000000000000E+00
     182.000   2.009981981635E-46   0.000000000000E+00
     183.000   4.138505697735E-46   0.000000000000E+00
     184.000   8.454456547997E-46   0.000000000000E+00
     185.000   1.713854173059E-45   0.000000000000E+00
     186.000   3.447959559118E-45   0.000000000000E+00
     187.000   6.884993376604E-45   0.000000000000E+00
     188.000   1.364739524239E-44   0.000000000000E+00
     189.000   2.685663563998E-44   0.000000000000E+00
     190.000   5.247575416781E-44   0.000000000000E+00
     191.000   1.018168421075E-43   0.000000000000E+00
     192.000   1.961923213991E-43   0.000000000000E+00
     193.000   3.754848742754E-43   0.000000000000E+00
     194.000   7.138329565053E-43   0.000000000000E+00
     195.000   1.348152935121E-42   0.000000000000E+00
     196.000   2.529670446874E-42   0.000000000000E+00
     197.000   4.716435088556E-42   0.000000000000E+00
     198.000   8.738380447302E-42   0.000000000000E+00
     199.000   1.609001344692E-41   0.000000000000E+00
     200.000   2.944629174550E-41   0.000000000000E+00
     201.000   5.356648271052E-41   0.000000000000E+00
     202.000   9.686854005063E-41   0.000000000000E+00
     203.000   1.741556245037E-40   0.000000000000E+00
     204.000   3.113111386477E-40   0.000000000000E+00
     205.000   5.533383484425E-40   0.000000000000E+00
     206.000   9.780513889027E-40   0.000000000000E+00
     207.000   1.719263810901E-39   0.000000000000E+00
     208.000   3.005853321588E-39   0.000000000000E+00
     209.000   5.227225959176E-39   0.000000000000E+00
     210.000   9.042450893000E-39   0.000000000000E+00
     211.000   1.556126786908E-38   0.000000000000E+00
     212.000   2.664278735731E-38   0.000000000000E+00
     213.000   4.538595985165E-38   0.000000000000E+00
     214.000   7.693098926885E-38   0.000000000000E+00
     215.000   1.297625001691E-37   0.000000000000E+00
     216.000   2.178185169900E-37   0.000000000000E+00
     217.000   3.638875171939E-37   0.000000000000E+00
     218.000   6.050549498673E-37   0.000000000000E+00
     219.000   1.001395850849E-36   0.000000000000E+00
     220.000   1.649785819730E-36   0.000000000000E+00
     221.000   2.705746823018E-36   0.000000000000E+00
     222.000   4.417851117405E-36   0.000000000000E+00
     223.000   7.181668642207E-36   0.000000000000E+00
     224.000   1.162399981151E-35   0.000000000000E+00
     225.000   1.873384358907E-35   0.000000000000E+00
     226.000   3.006518817336E-35   0.000000000000E+00
     227.000   4.804972925118E-35   0.000000000000E+00
     228.000   7.647716167592E-35   0.000000000000E+00
     229.000   1.212299081523E-34   0.000000000000E+00
     230.000   1.914026657030E-34   0.000000000000E+00
     231.000   3.010017176970E-34   0.000000000000E+00
     232.000   4.715143964931E-34   0.000000000000E+00
     233.000   7.357796233920E-34   0.000000000000E+00
     234.000   1.143796654730E-33   0.000000000000E+00
     235.000   1.771410604886E-33   0.000000000000E+00
     236.000   2.733252410853E-33   0.000000000000E+00
     237.000   4.201948248230E-33   0.000000000000E+00
     238.000   6.436535291648E-33   0.000000000000E+00
     239.000   9.824349576649E-33   0.000000000000E+00
     240.000   1.494256073013E-32   0.000000000000E+00
     241.000   2.264826157778E-32   0.000000000000E+00
     242.000   3.420992103219E-32   0.000000000000E+00
     243.000   5.149855643725E-32   0.000000000000E+00
     244.000   7.726484704005E-32   0.000000000000E+00
     245.000   1.155395262714E-31   0.000000000000E+00
     246.000   1.722100509826E-31   0.000000000000E+00
     247.000   2.558485401110E-31   0.000000000000E+00
     248.000   3.788967704975E-31   0.000000000000E+00
     249.000   5.593570049330E-31   0.000000000000E+00
     250.000   8.231972546189E-31   0.000000000000E+00
     251.000   1.207762596120E-30   0.000000000000E+00
     252.000   1.766599025274E-30   0.000000000000E+00
     253.000   2.576254795001E-30   0.000000000000E+00
     254.000   3.745842180372E-30   0.000000000000E+00
     255.000   5.430441665446E-30   0.000000000000E+00
     256.000   7.849839651399E-30   0.000000000000E+00
     257.000   1.131464891173E-29   0.000000000000E+00
     258.000   1.626262038857E-29   0.000000000000E+00
     259.000   2.330898533241E-29   0.000000000000E+00
     260.000   3.331606128178E-29   0.000000000000E+00
     261.000   4.748923767920E-29   0.000000000000E+00
     262.000   6.750899110718E-29   0.000000000000E+00
     263.000   9.571198326964E-29   0.000000000000E+00
     264.000   1.353388533853E-28   0.000000000000E+00
     265.000   1.908724076648E-28   0.000000000000E+00
     266.000   2.684980271658E-28   0.000000000000E+00
     267.000   3.767289102089E-28   0.000000000000E+00
     268.000   5.272530844231E-28   0.000000000000E+00
     269.000   7.360780716506E-28   0.000000000000E+00
     270.000   1.025074104163E-27   0.000000000000E+00
     271.000   1.424049738882E-27   0.000000000000E+00
     272.000   1.973537013796E-27   0.000000000000E+00
     273.000   2.728520059221E-27   0.000000000000E+00
     274.000   3.763415340276E-27   0.000000000000E+00
     275.000   5.178708642379E-27   0.000000000000E+00
     276.000   7.109780162735E-27   0.000000000000E+00
     277.000   9.738613147359E-27   0.000000000000E+00
     278.000   1.330929429080E-26   0.000000000000E+00
     279.000   1.814848946536E-26   0.000000000000E+00
     280.000   2.469243392259E-26   0.000000000000E+00
     281.000   3.352243433570E-26   0.000000000000E+00
     282.000   4.541146935157E-26   0.000000000000E+00
     283.000   6.138523165295E-26   0.000000000000E+00
     284.000   8.280192329453E-26   0.000000000000E+00
     285.000   1.114563544776E-25   0.000000000000E+00
     286.000   1.497154759124E-25   0.000000000000E+00
     287.000   2.006944867978E-25   0.000000000000E+00
     288.000   2.684852173699E-25   0.000000000000E+00
     289.000   3.584517284302E-25   0.000000000000E+00
     290.000   4.776121768836E-25   0.000000000000E+00
     291.000   6.351311861398E-25   0.000000000000E+00
     292.000   8.429535069489E-25   0.000000000000E+00
     293.000   1.116617997609E-24   0.000000000000E+00
     294.000   1.476301313546E-24   0.000000000000E+00
     295.000   1.948153695917E-24   0.000000000000E+00
     296.000   2.566005530359E-24   0.000000000000E+00
     297.000   3.373543703354E-24   0.000000000000E+00
     298.000   4.427082190880E-24   0.000000000000E+00
     299.000   5.799082971256E-24   0.000000000000E+00
     300.000   7.582622732376E-24   0.000000000000E+00
     301.000   9.897049744139E-24   0.000000000000E+00
     302.000   1.289513589231E-23   0.000000000000E+00
     303.000   1.677210390852E-23   0.000000000000E+00
     304.000   2.177700255924E-23   0.000000000000E+00
     305.000   2.822701696041E-23   0.000000000000E+00
     306.000   3.652544210838E-23   0.000000000000E+00
     307.000   4.718422103550E-23   0.000000000000E+00
     308.000   6.085216182748E-23   0.000000000000E+00
     309.000   7.835020868337E-23   0.000000000000E+00
     310.000   1.007154616500E-22   0.000000000000E+00
     311.000   1.292560301494E-22   0.000000000000E+00
     312.000   1.656192820243E-22   0.000000000000E+00
     313.000   2.118766306903E-22   0.000000000000E+00
     314.000   2.706287098726E-22   0.000000000000E+00
     315.000   3.451356444209E-22   0.000000000000E+00
     316.000   4.394781680793E-22   0.000000000000E+00
     317.000   5.587566021972E-22   0.000000000000E+00
     318.000   7.093362377699E-22   0.000000000000E+00
     319.000   8.991495100765E-22   0.000000000000E+00
     320.000   1.138067583794E-21   0.000000000000E+00
     321.000   1.438356652071E-21   0.000000000000E+00
     322.000   1.815237484970E-21   0.000000000000E+00
     323.000   2.287570646873E-21   0.000000000000E+00
     324.000   2.878694464366E-21   0.000000000000E+00
     325.000   3.617448414138E-21   0.000000000000E+00
     326.000   4.539421289848E-21   0.000000000000E+00
     327.000   5.688471504529E-21   0.000000000000E+00
     328.000   7.118576434526E-21   0.000000000000E+00
     329.000   8.896079098987E-21   0.000000000000E+00
     330.000   1.110241403253E-20   0.000000000000E+00
     331.000   1.383741034357E-20   0.000000000000E+00
     332.000   1.722328912070E-20   0.000000000000E+00
     333.000   2.140949509810E-20   0.000000000000E+00
     334.000   2.657852945313E-20   0.000000000000E+00
     335.000   3.295298252816E-20   0.000000000000E+00
     336.000   4.080400301080E-20   0.000000000000E+00
     337.000   5.046148468138E-20   0.000000000000E+00
     338.000   6.232630442143E-20   0.000000000000E+00
     339.000   7.688500713818E-20   0.000000000000E+00
     340.000   9.472740618891E-20   0.000000000000E+00
     341.000   1.165676536278E-19   0.000000000000E+00
     342.000   1.432694352859E-19   0.000000000000E+00
     343.000   1.758760638079E-19   0.000000000000E+00
     344.000   2.156463811676E-19   0.000000000000E+00
     345.000   2.640975441840E-19   0.000000000000E+00
     346.000   3.230559559690E-19   0.000000000000E+00
     347.000   3.947178274727E-19   0.000000000000E+00
     348.000   4.817211114150E-19   0.000000000000E+00
     349.000   5.872308517452E-19   0.000000000000E+00
     350.000   7.150403420603E-19   0.000000000000E+00
     351.000   8.696908938500E-19   0.000000000000E+00
     352.000   1.056613488844E-18   0.000000000000E+00
     353.000   1.282296139273E-18   0.000000000000E+00
     354.000   1.554481417070E-18   0.000000000000E+00
     355.000   1.882399351280E-18   0.000000000000E+00
     356.000   2.277041747259E-18   0.000000000000E+00
     357.000   2.751484969042E-18   0.000000000000E+00
     358.000   3.321269367242E-18   0.000000000000E+00
     359.000   4.004844851458E-18   0.000000000000E+00
     360.000   4.824093624114E-18   0.000000000000E+00
     361.000   5.804942840968E-18   0.000000000000E+00
     362.000   6.978081975359E-18   0.000000000000E+00
     363.000   8.379801976168E-18   0.000000000000E+00
     364.000   1.005297596605E-17   0.000000000000E+00
     365.000   1.204820427511E-17   0.000000000000E+00
     366.000   1.442515010041E-17   0.000000000000E+00
     367.000   1.725409608559E-17   0.000000000000E+00
     368.000   2.061775669714E-17   0.000000000000E+00
     369.000   2.461338651367E-17   0.000000000000E+00
     370.000   2.935523053079E-17   0.000000000000E+00
     371.000   3.497736941778E-17   0.000000000000E+00
     372.000   4.163702045569E-17   0.000000000000E+00
     373.000   4.951836376797E-17   0.000000000000E+00
     374.000   5.883697356674E-17   0.000000000000E+00
     375.000   6.984494564205E-17   0.000000000000E+00
     376.000   8.283682539804E-17   0.000000000000E+00
     377.000   9.815645559231E-17   0.000000000000E+00
     378.000   1.162048797897E-16   0.000000000000E+00
     379.000   1.374494566541E-16   0.000000000000E+00
     380.000   1.624343618566E-16   0.000000000000E+00
     381.000   1.917926788955E-16   0.000000000000E+00
     382.000   2.262603078555E-16   0.000000000000E+00
     383.000   2.666919524831E-16   0.000000000000E+00
     384.000   3.140794813643E-16   0.000000000000E+00
     385.000   3.695729989490E-16   0.000000000000E+00
     386.000   4.345050072378E-16   0.000000000000E+00
     387.000   5.104180897295E-16   0.000000000000E+00
     388.000   5.990966064170E-16   0.000000000000E+00
     389.000   7.026029529707E-16   0.000000000000E+00
     390.000   8.233190095986E-16   0.000000000000E+00
     391.000   9.639934863723E-16   0.000000000000E+00
     392.000   1.127795963078E-15   0.000000000000E+00
     393.000   1.318378524065E-15   0.000000000000E+00
     394.000   1.539946003362E-15   0.000000000000E+00
     395.000   1.797335983987E-15   0.000000000000E+00
     396.000   2.096109839358E-15   0.000000000000E+00
     397.000   2.442656265861E-15   0.000000000000E+00
     398.000   2.844308935739E-15   0.000000000000E+00
     399.000   3.309480100741E-15   0.000000000000E+00
     400.000   3.847812201667E-15   0.000000000000E+00
     401.000   4.470349789630E-15   0.000000000000E+00
     402.000   5.189734344441E-15   0.000000000000E+00
     403.000   6.020424886938E-15   0.000000000000E+00
     404.000   6.978947628967E-15   0.000000000000E+00
     405.000   8.084178290641E-15   0.000000000000E+00
     406.000   9.357661143733E-15   0.000000000000E+00
     407.000   1.082396931704E-14   0.000000000000E+00
     408.000   1.251111142937E-14   0.000000000000E+00
     409.000   1.445099020373E-14   0.000000000000E+00
     410.000   1.667991936879E-14   0.000000000000E+00
     411.000   1.923920587637E-14   0.000000000000E+00
     412.000   2.217580526525E-14   0.000000000000E+00
     413.000   2.554305888798E-14   0.000000000000E+00
     414.000   2.940152269938E-14   0.000000000000E+00
     415.000   3.381989838997E-14   0.000000000000E+00
     416.000   3.887607884763E-14   0.000000000000E+00
     417.000   4.465832125516E-14   0.000000000000E+00
     418.000   5.126656259378E-14   0.000000000000E+00
     419.000   5.881389393619E-14   0.000000000000E+00
     420.000   6.742821169128E-14   0.000000000000E+00
     421.000   7.725406592282E-14   0.000000000000E+00
     422.000   8.845472802319E-14   0.000000000000E+00
     423.000   1.012145023992E-13   0.000000000000E+00
     424.000   1.157413094408E-13   0.000000000000E+00
     425.000   1.322695699168E-13   0.000000000000E+00
     426.000   1.510634241004E-13   0.000000000000E+00
     427.000   1.724203223936E-13   0.000000000000E+00
     428.000   1.966750280274E-13   0.000000000000E+00
     429.000   2.242040765897E-13   0.000000000000E+00
     430.000   2.554307417100E-13   0.000000000000E+00
     431.000   2.908305612497E-13   0.000000000000E+00
     432.000   3.309374838387E-13   0.000000000000E+00
     433.000   3.763507016167E-13   0.000000000000E+00
     434.000   4.277422416168E-13   0.000000000000E+00
     435.000   4.858653954283E-13   0.000000000000E+00
     436.000   5.515640746379E-13   0.000000000000E+00
     437.000   6.257831881452E-13   0.000000000000E+00
     438.000   7.095801468274E-13   0.000000000000E+00
     439.000   8.041376112685E-13   0.000000000000E+00
     440.000   9.107776094336E-13   0.000000000000E+00
     441.000   1.030977163348E-12   0.000000000000E+00
     442.000   1.166385577100E-12   0.000000000000E+00
     443.000   1.318843552952E-12   0.000000000000E+00
     444.000   1.490404318039E-12   0.000000000000E+00
     445.000   1.683356961303E-12   0.000000000000E+00
     446.000   1.900252198864E-12   0.000000000000E+00
     447.000   2.143930806306E-12   0.000000000000E+00
     448.000   2.417554978318E-12   0.000000000000E+00
     449.000   2.724642900013E-12   0.000000000000E+00
     450.000   3.069106840151E-12   0.000000000000E+00
     451.000   3.455295104620E-12   0.000000000000E+00
     452.000   3.888038219024E-12   0.000000000000E+00
     453.000   4.372699742261E-12   0.000000000000E+00
     454.000   4.915232148812E-12   0.000000000000E+00
     455.000   5.522238256227E-12   0.000000000000E+00
     456.000   6.201038716300E-12   0.000000000000E+00
     457.000   6.959746133838E-12   0.000000000000E+00
     458.000   7.807346426077E-12   0.000000000000E+00
     459.000   8.753788088918E-12   0.000000000000E+00
     460.000   9.810080093557E-12   0.000000000000E+00
     461.000   1.098839919909E-11   0.000000000000E+00
     462.000   1.230220753360E-11   0.000000000000E+00
     463.000   1.376638136853E-11   0.000000000000E+00
     464.000   1.539735208904E-11   0.000000000000E+00
     465.000   1.721326044705E-11   0.000000000000E+00
     466.000   1.923412527441E-11   0.000000000000E+00
     467.000   2.148202793101E-11   0.000000000000E+00
     468.000   2.398131386800E-11   0.000000000000E+00
     469.000   2.675881279918E-11   0.000000000000E+00
     470.000   2.984407909566E-11   0.000000000000E+00
     471.000   3.326965414953E-11   0.000000000000E+00
     472.000   3.707135259351E-11   0.000000000000E+00
     473.000   4.128857441450E-11   0.000000000000E+00
     474.000   4.596464516185E-11   0.000000000000E+00
     475.000   5.114718662562E-11   0.000000000000E+00
     476.000   5.688852054769E-11   0.000000000000E+00
     477.000   6.324610812973E-11   0.000000000000E+00
     478.000   7.028302831777E-11   0.000000000000E+00
     479.000   7.806849807451E-11   0.000000000000E+00
     480.000   8.667843809872E-11   0.000000000000E+00
     481.000   9.619608771651E-11   0.000000000000E+00
     482.000   1.067126729542E-10   0.000000000000E+00
     483.000   1.183281321067E-10   0.000000000000E+00
     484.000   1.311519034431E-10   0.000000000000E+00
     485.000   1.453037800367E-10   0.000000000000E+00
     486.000   1.609148370842E-10   0.000000000000E+00
     487.000   1.781284374749E-10   0.000000000000E+00
     488.000   1.971013217968E-10   0.000000000000E+00
     489.000   2.180047894251E-10   0.000000000000E+00
     490.000   2.410259778205E-10   0.000000000000E+00
     491.000   2.663692476886E-10   0.000000000000E+00
     492.000   2.942576822030E-10   0.000000000000E+00
     493.000   3.249347090856E-10   0.000000000000E+00
     494.000   3.586658549708E-10   0.000000000000E+00
     495.000   3.957406421505E-10   0.000000000000E+00
     496.000   4.364746385116E-10   0.000000000000E+00
     497.000   4.812116722453E-10   0.000000000000E+00
     498.000   5.303262237157E-10   0.000000000000E+00
     499.000   5.842260077424E-10   0.000000000000E+00
     500.000   6.433547604726E-10   0.000000000000E+00
     501.000   7.081952459982E-10   0.000000000000E+00
     502.000   7.792724989135E-10   0.000000000000E+00
     503.000   8.571573201191E-10   0.000000000000E+00
     504.000   9.424700443536E-10   0.000000000000E+00
     505.000   1.035884599186E-09   0.000000000000E+00
     506.000   1.138132876529E-09   0.000000000000E+00
     507.000   1.250009439153E-09   0.000000000000E+00
     508.000   1.372376586158E-09   0.000000000000E+00
     509.000   1.506169802978E-09   0.000000000000E+00
     510.000   1.652403623149E-09   0.000000000000E+00
     511.000   1.812177930890E-09   0.000000000000E+00
     512.000   1.986684735412E-09   0.000000000000E+00
     513.000   2.177215449901E-09   0.000000000000E+00
     514.000   2.385168710239E-09   0.000000000000E+00
     515.000   2.612058770787E-09   0.000000000000E+00
     516.000   2.859524516933E-09   0.000000000000E+00
     517.000   3.129339136646E-09   0.000000000000E+00
     518.000   3.423420495946E-09   0.000000000000E+00
     519.000   3.743842266022E-09   0.000000000000E+00
     520.000   4.092845852737E-09   0.000000000000E+00
     521.000   4.472853182409E-09   0.000000000000E+00
     522.000   4.886480401107E-09   0.000000000000E+00
     523.000   5.336552548239E-09   0.000000000000E+00
     524.000   5.826119268927E-09   0.000000000000E+00
     525.000   6.358471633620E-09   0.000000000000E+00
     526.000   6.937160137559E-09   0.000000000000E+00
     527.000   7.566013957078E-09   0.000000000000E+00
     528.000   8.249161544393E-09   0.000000000000E+00
     529.000   8.991052647394E-09   0.000000000000E+00
     530.000   9.796481846125E-09   0.000000000000E+00
     531.000   1.067061370307E-08   0.000000000000E+00
     532.000   1.161900963008E-08   0.000000000000E+00
     533.000   1.264765658084E-08   0.000000000000E+00
     534.000   1.376299768416E-08   0.000000000000E+00
     535.000   1.497196493989E-08   0.000000000000E+00
     536.000   1.628201410668E-08   0.000000000000E+00
     537.000   1.770116191776E-08   0.000000000000E+00
     538.000   1.923802576922E-08   0.000000000000E+00
     539.000   2.090186603299E-08   0.000000000000E+00
     540.000   2.270263115584E-08   0.000000000000E+00
     541.000   2.465100571439E-08   0.000000000000E+00
     542.000   2.675846160603E-08   0.000000000000E+00
     543.000   2.903731256541E-08   0.000000000000E+00